 &FCI NORB=  20,NELEC=30,MS2=0,
  ORBSYM=1,1,1,1,1,1,1,1,1,1,1,1,1,1,1,1,1,1,1,1,
  ISYM=1,
 &END
 0.4768367057084017    1    1    1    1
 -0.001459817935645285    2    1    1    1
 0.001246068290457547    2    1    2    1
 0.1751565734649574    2    2    1    1
 -0.001576656854900483    2    2    2    1
 0.4769746428237548    2    2    2    2
 0.01552432334966151    3    1    1    1
 -0.0002138617642741839    3    1    2    1
 -0.001923542691727411    3    1    2    2
 0.003060056353094688    3    1    3    1
 6.462025240040426e-05    3    2    1    1
 -0.0006104049320622226    3    2    2    1
 0.01835160277408735    3    2    2    2
 -0.0004491546215162079    3    2    3    1
 0.006295547256881049    3    2    3    2
 0.2796815077248683    3    3    1    1
 -0.01140959089889201    3    3    2    1
 0.2904787287561366    3    3    2    2
 -0.005511285571907392    3    3    3    1
 -0.009813205740912663    3    3    3    2
 0.8455204585786115    3    3    3    3
 -0.01773115018647699    4    1    1    1
 0.0005907995540445968    4    1    2    1
 -0.0002475322046997576    4    1    2    2
 -0.00132000731354178    4    1    3    1
 -5.87068218625039e-05    4    1    3    2
 0.01012692660738763    4    1    3    3
 0.006198845000258993    4    1    4    1
 0.001940165229881445    4    2    1    1
 0.0001666555536210869    4    2    2    1
 -0.01377919121320913    4    2    2    2
 0.0001051810374486181    4    2    3    1
 -0.001272479182554073    4    2    3    2
 0.001052657219099222    4    2    3    3
 -0.000587898909463656    4    2    4    1
 0.00267578529153843    4    2    4    2
 -0.001046405040520412    4    3    1    1
 0.0002486516722730567    4    3    2    1
 -0.001303499266632042    4    3    2    2
 0.002018307009006001    4    3    3    1
 -0.001402517121898344    4    3    3    2
 0.001561361577850548    4    3    3    3
 0.001413219739932202    4    3    4    1
 -0.00222452059733039    4    3    4    2
 0.03323636308536529    4    3    4    3
 0.2889859855637251    4    4    1    1
 -0.01148488513662573    4    4    2    1
 0.2800816714523257    4    4    2    2
 -0.001364419001263895    4    4    3    1
 -0.01172478711572996    4    4    3    2
 0.7764483717294086    4    4    3    3
 0.007632621598861709    4    4    4    1
 0.005660229470568589    4    4    4    2
 0.001657263053999436    4    4    4    3
 0.8451823393704788    4    4    4    4
 -0.01635555202156784    5    1    1    1
 3.399475708022726e-05    5    1    2    1
 0.006142905551117823    5    1    2    2
 -0.001773195933538524    5    1    3    1
 -0.0001221392836987638    5    1    3    2
 -0.000271156195183409    5    1    3    3
 0.0009362569263405075    5    1    4    1
 -0.0002125659369769959    5    1    4    2
 -0.000472768826333172    5    1    4    3
 0.001413449820602885    5    1    4    4
 0.003151970375162794    5    1    5    1
 -0.001662948625247002    5    2    1    1
 0.000398072667915737    5    2    2    1
 0.0001826171307841907    5    2    2    2
 -0.0002475403403107496    5    2    3    1
 0.0005752061032460332    5    2    3    2
 0.004313323864879183    5    2    3    3
 0.0007604120221886734    5    2    4    1
 0.0001916798888772388    5    2    4    2
 0.0003962407986331784    5    2    4    3
 0.001819718761331865    5    2    4    4
 -0.0005541191428805995    5    2    5    1
 0.003393618478791214    5    2    5    2
 -0.005038468562422403    5    3    1    1
 -0.0001878648615760518    5    3    2    1
 0.00157580066598719    5    3    2    2
 -0.001487231434068759    5    3    3    1
 0.002108003781351366    5    3    3    2
 -3.728404463098913e-06    5    3    3    3
 -0.000613584370757784    5    3    4    1
 0.0007055492665599068    5    3    4    2
 -0.001933888960270945    5    3    4    3
 0.0005334604152346391    5    3    4    4
 0.0006039449336767074    5    3    5    1
 -0.001316820480564877    5    3    5    2
 0.03054756870885271    5    3    5    3
 2.108910955666792e-05    5    4    1    1
 0.0002069276221781961    5    4    2    1
 0.003585104348997043    5    4    2    2
 -0.000676553818471158    5    4    3    1
 0.0004784141258730543    5    4    3    2
 0.008120664692035654    5    4    3    3
 0.0002796650539805618    5    4    4    1
 -4.750601518467517e-05    5    4    4    2
 -0.0003190998622990264    5    4    4    3
 0.003081229468498462    5    4    4    4
 0.0002748877800485061    5    4    5    1
 0.0006088650304341702    5    4    5    2
 0.00218144073514492    5    4    5    3
 0.02089396227664937    5    4    5    4
 0.2687804274305363    5    5    1    1
 -0.01015363152375787    5    5    2    1
 0.2931070014338501    5    5    2    2
 -0.002164843628035833    5    5    3    1
 -0.009619035253839366    5    5    3    2
 0.7229411955165748    5    5    3    3
 0.008195492628617677    5    5    4    1
 0.00299750658288378    5    5    4    2
 -0.003200328562187292    5    5    4    3
 0.7426035553823898    5    5    4    4
 0.004257124949030761    5    5    5    1
 0.0003354727785832179    5    5    5    2
 -0.000171834599182834    5    5    5    3
 0.002925896987905315    5    5    5    4
 0.7326701343404006    5    5    5    5
 0.0008570863015520951    6    1    1    1
 -0.0003930710223312097    6    1    2    1
 0.001169274118262753    6    1    2    2
 0.0002942462912392184    6    1    3    1
 0.000774742080620911    6    1    3    2
 -0.003476911818287851    6    1    3    3
 0.0003981717978749217    6    1    4    1
 -0.0002659018581711399    6    1    4    2
 -0.0005093527762911442    6    1    4    3
 -0.005699562007201321    6    1    4    4
 0.0003289362732441566    6    1    5    1
 0.0002198607346720251    6    1    5    2
 -0.0004093671248683798    6    1    5    3
 -0.0007912152487948825    6    1    5    4
 -0.004960119189481904    6    1    5    5
 0.003264962659169349    6    1    6    1
 -0.006266741371982012    6    2    1    1
 7.462997398388288e-06    6    2    2    1
 0.01594841970621518    6    2    2    2
 -0.0003057860884810721    6    2    3    1
 0.0006174525523353596    6    2    3    2
 -0.0008490592905221182    6    2    3    3
 -0.0001684139927517031    6    2    4    1
 -0.001560795172533953    6    2    4    2
 0.00066524281162452    6    2    4    3
 0.0006596562499349737    6    2    4    4
 0.0009446113889056191    6    2    5    1
 0.0001934407510510753    6    2    5    2
 0.0009509853234485665    6    2    5    3
 0.0008395559752470195    6    2    5    4
 0.00135526662389998    6    2    5    5
 -0.0006188703930507592    6    2    6    1
 0.00328078286765308    6    2    6    2
 0.003563777576623038    6    3    1    1
 0.000145695181667123    6    3    2    1
 -0.001019635004444765    6    3    2    2
 0.0001258556117952574    6    3    3    1
 -0.0005808446783426951    6    3    3    2
 0.003022452702105364    6    3    3    3
 -0.0005954027653469077    6    3    4    1
 0.0008565504791632642    6    3    4    2
 -0.001486136875350061    6    3    4    3
 0.008330481853992518    6    3    4    4
 -0.0007229718718793314    6    3    5    1
 0.0006695725452672918    6    3    5    2
 -0.003683582973744389    6    3    5    3
 0.001012109945209169    6    3    5    4
 0.001260619253323905    6    3    5    5
 -0.0004258912525220468    6    3    6    1
 -0.0006205152609954879    6    3    6    2
 0.02032046265140642    6    3    6    3
 0.0009138868712350585    6    4    1    1
 -0.0002098240735109286    6    4    2    1
 -0.004830067775118393    6    4    2    2
 -0.000813761029738776    6    4    3    1
 0.000703163995500204    6    4    3    2
 0.00204751482406624    6    4    3    3
 -0.001728645751671053    6    4    4    1
 0.001094731497176203    6    4    4    2
 -0.002046937061992219    6    4    4    3
 -0.001119266451187661    6    4    4    4
 -0.00124329886784544    6    4    5    1
 0.0006627475160075325    6    4    5    2
 0.005833535813998777    6    4    5    3
 -0.003112455448935592    6    4    5    4
 -0.01151413861998866    6    4    5    5
 0.00174026119286721    6    4    6    1
 -0.001100692374237936    6    4    6    2
 0.001471290339818107    6    4    6    3
 0.03074322605264729    6    4    6    4
 0.002833403289712046    6    5    1    1
 0.0009243100325631562    6    5    2    1
 0.0006028068727876533    6    5    2    2
 -0.0007660740335704906    6    5    3    1
 0.001224687305587078    6    5    3    2
 -0.01838474877969587    6    5    3    3
 -0.001460058580732754    6    5    4    1
 0.001018977500262709    6    5    4    2
 -0.006553920194579937    6    5    4    3
 -0.01940479532373595    6    5    4    4
 -0.0008313307638388448    6    5    5    1
 0.0004076968898851446    6    5    5    2
 0.0005806683474733577    6    5    5    3
 0.00504157502953238    6    5    5    4
 -0.02268041279914144    6    5    5    5
 3.324980594321439e-05    6    5    6    1
 0.000265349908398912    6    5    6    2
 0.004799997369743999    6    5    6    3
 0.00105298989451015    6    5    6    4
 0.02674600228275308    6    5    6    5
 0.2905803892468701    6    6    1    1
 -0.01026607561368765    6    6    2    1
 0.2718181313778032    6    6    2    2
 -0.002887555819604239    6    6    3    1
 -0.01007644422633572    6    6    3    2
 0.7492049470565934    6    6    3    3
 0.008939854273786815    6    6    4    1
 0.001391096193868421    6    6    4    2
 -0.002075838805166571    6    6    4    3
 0.7275369059354436    6    6    4    4
 -0.0002451834919210789    6    6    5    1
 0.00301045568704242    6    6    5    2
 -0.01004880598552298    6    6    5    3
 0.0003196275190560156    6    6    5    4
 0.6824027384444257    6    6    5    5
 -0.002295445401262784    6    6    6    1
 -0.003184737171952532    6    6    6    2
 0.002929886073077274    6    6    6    3
 -0.0009374444892591888    6    6    6    4
 -0.02270081716802327    6    6    6    5
 0.7419082529323241    6    6    6    6
 0.01370663652997234    7    1    1    1
 -8.719590104372289e-05    7    1    2    1
 -0.0005348966046734854    7    1    2    2
 0.001492096083744974    7    1    3    1
 0.0003682758111297278    7    1    3    2
 -0.007222989777035996    7    1    3    3
 -0.001954159547791108    7    1    4    1
 9.690889078400584e-05    7    1    4    2
 -0.001731239185400036    7    1    4    3
 -0.007727025813000854    7    1    4    4
 -0.001509140459891162    7    1    5    1
 -0.000239311409148785    7    1    5    2
 -0.001336419672250689    7    1    5    3
 0.000734308430560975    7    1    5    4
 -0.0060353590515656    7    1    5    5
 -6.985099810897434e-05    7    1    6    1
 -0.0003557215581135705    7    1    6    2
 0.0004664721186602353    7    1    6    3
 -0.001495516577255676    7    1    6    4
 0.001886720337535697    7    1    6    5
 -0.005772333774584139    7    1    6    6
 0.00268994540590619    7    1    7    1
 0.0004628199439725276    7    2    1    1
 0.0001244608131429993    7    2    2    1
 -0.01532476562139056    7    2    2    2
 9.176014929377532e-05    7    2    3    1
 -0.002336527676910492    7    2    3    2
 0.007234608209528397    7    2    3    3
 0.0003231190289333379    7    2    4    1
 0.001435809390291462    7    2    4    2
 0.001752069554938644    7    2    4    3
 0.007873975396122956    7    2    4    4
 -0.0002965617954184907    7    2    5    1
 -0.0002317679215783169    7    2    5    2
 0.001523100437438452    7    2    5    3
 -0.0004407904171533565    7    2    5    4
 0.006055729921395255    7    2    5    5
 -0.0003409100364468489    7    2    6    1
 -0.001539165002236287    7    2    6    2
 -0.0007720475790360579    7    2    6    3
 0.001271429095564271    7    2    6    4
 -0.00192534532410218    7    2    6    5
 0.006095119243541738    7    2    6    6
 -0.0008826615971288873    7    2    7    1
 0.003074401417918564    7    2    7    2
 0.004355977652221147    7    3    1    1
 0.0001050242260146853    7    3    2    1
 -0.004864698477901473    7    3    2    2
 1.129276835007362e-05    7    3    3    1
 -0.000192891916985038    7    3    3    2
 0.000584993874910148    7    3    3    3
 -0.001386814634058736    7    3    4    1
 0.001535603475240183    7    3    4    2
 -0.0009261314240798605    7    3    4    3
 0.007644069997075837    7    3    4    4
 -0.001446895271483139    7    3    5    1
 0.001119942377596823    7    3    5    2
 -0.001826928814404094    7    3    5    3
 -0.001145332515600297    7    3    5    4
 -0.005839909230240459    7    3    5    5
 0.0006630490843129754    7    3    6    1
 -0.0009110775595227703    7    3    6    2
 0.005252066104168148    7    3    6    3
 0.00892599951490872    7    3    6    4
 0.004320250846289515    7    3    6    5
 0.0007531975906369042    7    3    6    6
 -0.0006281559640163208    7    3    7    1
 -0.0005236855083895271    7    3    7    2
 0.02879665193505825    7    3    7    3
 -0.003851230773351137    7    4    1    1
 9.441031442583862e-05    7    4    2    1
 0.004114486462963698    7    4    2    2
 -0.001484630721461713    7    4    3    1
 0.001470915090990728    7    4    3    2
 0.00319080986457328    7    4    3    3
 -0.000381111211290728    7    4    4    1
 0.0005225909639472817    7    4    4    2
 -0.002837121164966018    7    4    4    3
 0.0002055207043570367    7    4    4    4
 0.0008643956158059305    7    4    5    1
 -0.000660199235996376    7    4    5    2
 0.008844785894832782    7    4    5    3
 0.005135162456868633    7    4    5    4
 0.004096582814139004    7    4    5    5
 -0.0011168525938137    7    4    6    1
 0.001397764682623256    7    4    6    2
 -0.001561720096781915    7    4    6    3
 -0.002447481205404154    7    4    6    4
 0.004048531778418723    7    4    6    5
 -0.00625915801067625    7    4    6    6
 0.0008201453988457523    7    4    7    1
 0.0002239376115441481    7    4    7    2
 -0.005041777922395372    7    4    7    3
 0.02780602482576301    7    4    7    4
 -0.004440667957005023    7    5    1    1
 -0.0003464981975930971    7    5    2    1
 -0.0005758950261462232    7    5    2    2
 -0.00154174300436429    7    5    3    1
 0.001232156393195646    7    5    3    2
 0.003480086150561494    7    5    3    3
 0.0005800721419736779    7    5    4    1
 -0.0002481800008539057    7    5    4    2
 -0.007747945378820758    7    5    4    3
 -0.01073622636639338    7    5    4    4
 0.0003093010429615195    7    5    5    1
 -4.085949285888877e-05    7    5    5    2
 0.003120057558734473    7    5    5    3
 -0.001830561111328927    7    5    5    4
 -8.681743167511677e-05    7    5    5    5
 0.0009730564716344709    7    5    6    1
 -0.001022422191185543    7    5    6    2
 -0.004371661104624004    7    5    6    3
 0.001347849026153744    7    5    6    4
 -0.002829027742041393    7    5    6    5
 0.006413228364093161    7    5    6    6
 0.0003264832928855193    7    5    7    1
 0.0001003169224966368    7    5    7    2
 -0.00521357543146775    7    5    7    3
 0.001671554881346824    7    5    7    4
 0.02817129553999885    7    5    7    5
 -0.0004678094396947798    7    6    1    1
 -0.0003724956564247773    7    6    2    1
 -0.004851125865431859    7    6    2    2
 0.0002965647701819705    7    6    3    1
 -0.0005966006285453672    7    6    3    2
 -0.01168645156567756    7    6    3    3
 -0.001260157974202226    7    6    4    1
 0.001574358250150626    7    6    4    2
 -0.007408857403471388    7    6    4    3
 0.003864158867158326    7    6    4    4
 0.000932366921718308    7    6    5    1
 -0.001020824755804957    7    6    5    2
 -0.0006692717872150275    7    6    5    3
 -0.006067876475772209    7    6    5    4
 0.004816875452837334    7    6    5    5
 0.0001966732756033758    7    6    6    1
 -0.0004870854337021899    7    6    6    2
 5.39566935479996e-05    7    6    6    3
 0.00317436105461699    7    6    6    4
 -0.003116102103090383    7    6    6    5
 -0.0007714107163826068    7    6    6    6
 -0.000358501468870177    7    6    7    1
 -8.691730100348896e-05    7    6    7    2
 0.00239729469506493    7    6    7    3
 -0.004406785573185081    7    6    7    4
 0.003325354435355202    7    6    7    5
 0.02928807610785796    7    6    7    6
 0.2772746486871223    7    7    1    1
 -0.01182690078317715    7    7    2    1
 0.2802506596798632    7    7    2    2
 -0.003147861756674466    7    7    3    1
 -0.0107611884667456    7    7    3    2
 0.7943758476301528    7    7    3    3
 0.009540990754110515    7    7    4    1
 0.002524581717088234    7    7    4    2
 0.01039678420100764    7    7    4    3
 0.7957206304048137    7    7    4    4
 0.0013940275739176    7    7    5    1
 0.002102728075438072    7    7    5    2
 0.009396095837678416    7    7    5    3
 5.311206886086585e-05    7    7    5    4
 0.7345050115781506    7    7    5    5
 -0.004230203811896389    7    7    6    1
 -0.0001760198463164901    7    7    6    2
 -0.001227528547705702    7    7    6    3
 0.006908150275724576    7    7    6    4
 -0.03240957369705837    7    7    6    5
 0.7376006687733587    7    7    6    6
 -0.01179657370633937    7    7    7    1
 0.01207798561117158    7    7    7    2
 0.0009862296154007145    7    7    7    3
 0.0006850003766762049    7    7    7    4
 -7.164149995426474e-05    7    7    7    5
 -0.0009826789553098528    7    7    7    6
 0.8566860512828387    7    7    7    7
 -0.004453466100483148    8    1    1    1
 0.0006138714048908799    8    1    2    1
 -0.004678215319324832    8    1    2    2
 -0.0001613239944360659    8    1    3    1
 0.000228613227071172    8    1    3    2
 -0.01365117061909503    8    1    3    3
 0.001364718993336305    8    1    4    1
 -0.0001655573780489712    8    1    4    2
 0.000106031873346883    8    1    4    3
 -0.01421917311201602    8    1    4    4
 0.0004390749849489042    8    1    5    1
 0.0002502063316017731    8    1    5    2
 -0.0005324534826344673    8    1    5    3
 -0.0003819218844827935    8    1    5    4
 -0.01267992821323037    8    1    5    5
 0.0009769673853073442    8    1    6    1
 -0.0002532693681104521    8    1    6    2
 -5.045465897109422e-05    8    1    6    3
 -0.000117176095038704    8    1    6    4
 0.0003068213997760659    8    1    6    5
 -0.0115019161409733    8    1    6    6
 -0.0004044539604372326    8    1    7    1
 -0.0002694230125125182    8    1    7    2
 8.793812775215893e-06    8    1    7    3
 -0.0005122780956408741    8    1    7    4
 0.0001628470758450027    8    1    7    5
 0.0001423478477662454    8    1    7    6
 -0.01384362266808676    8    1    7    7
 0.001805005493377577    8    1    8    1
 0.002831704875732973    8    2    1    1
 -0.0004550879449434848    8    2    2    1
 0.0007040853180822789    8    2    2    2
 7.490528358901154e-05    8    2    3    1
 -0.001392865384044112    8    2    3    2
 0.01194060300252442    8    2    3    3
 -0.0002033605915843579    8    2    4    1
 -0.0003536438929495527    8    2    4    2
 0.0007708884472404375    8    2    4    3
 0.01313795213369548    8    2    4    4
 0.0002410793422201574    8    2    5    1
 -0.0002391699987248029    8    2    5    2
 -0.000462177330748785    8    2    5    3
 -0.0001741094720255232    8    2    5    4
 0.01123490288274853    8    2    5    5
 -0.0002798010173018585    8    2    6    1
 0.0008129826393945762    8    2    6    2
 0.0001218014968800428    8    2    6    3
 -0.0002897927432718514    8    2    6    4
 -0.0009408371427428554    8    2    6    5
 0.01136047358304112    8    2    6    6
 -0.0003468111570188323    8    2    7    1
 8.534531796481777e-05    8    2    7    2
 9.265088957444407e-05    8    2    7    3
 -0.000406941587315258    8    2    7    4
 -0.0005481105213236674    8    2    7    5
 7.004136468548047e-05    8    2    7    6
 0.0128937729446921    8    2    7    7
 -0.0005382358618323304    8    2    8    1
 0.001790451877604571    8    2    8    2
 0.003043231177571908    8    3    1    1
 0.0001428140146003224    8    3    2    1
 -0.008808982363942008    8    3    2    2
 -0.0008522408976411434    8    3    3    1
 0.0002484624159400556    8    3    3    2
 -0.002749745747804807    8    3    3    3
 -0.0005270028619111285    8    3    4    1
 0.0008244464444093446    8    3    4    2
 -0.001780672989371827    8    3    4    3
 -0.005797899240824489    8    3    4    4
 -0.0007956742546778838    8    3    5    1
 -0.0002480367135619477    8    3    5    2
 0.001795080829573419    8    3    5    3
 0.0007180236949593227    8    3    5    4
 -0.00511332910687363    8    3    5    5
 -0.0004760229182966623    8    3    6    1
 -0.0007489438248343358    8    3    6    2
 -0.000409363431109833    8    3    6    3
 0.0009700649365434689    8    3    6    4
 0.001009457913390509    8    3    6    5
 -0.00353096452811064    8    3    6    6
 0.0005353801694473288    8    3    7    1
 0.0006827730766816619    8    3    7    2
 -0.0008839153340679826    8    3    7    3
 0.001823418590937392    8    3    7    4
 0.001843250931378944    8    3    7    5
 -0.0004422514307867457    8    3    7    6
 -0.004161569610433341    8    3    7    7
 -0.0008743670442530754    8    3    8    1
 -0.001256741152640313    8    3    8    2
 0.005974403426386111    8    3    8    3
 0.004067311308942631    8    4    1    1
 -0.0001677598107411263    8    4    2    1
 -0.002365201942603575    8    4    2    2
 0.0003307229229233836    8    4    3    1
 0.0005669340889190784    8    4    3    2
 -0.003977798679679997    8    4    3    3
 -0.001478806062010415    8    4    4    1
 0.001119454856202018    8    4    4    2
 -0.001735516362751522    8    4    4    3
 0.0003410831021102577    8    4    4    4
 -0.0003286577980259073    8    4    5    1
 -0.0001809688582308207    8    4    5    2
 0.0007286437455617803    8    4    5    3
 -0.0004803408314930816    8    4    5    4
 -0.001714281858399337    8    4    5    5
 7.053080787176554e-05    8    4    6    1
 -0.0003780682659224394    8    4    6    2
 0.0009361660741519538    8    4    6    3
 0.001724522469296005    8    4    6    4
 0.001188417792626342    8    4    6    5
 -0.003216623719395904    8    4    6    6
 0.0001258794767494883    8    4    7    1
 -9.857471838546094e-05    8    4    7    2
 0.001796439699430928    8    4    7    3
 -0.0002966543628267893    8    4    7    4
 -0.0005600537709032477    8    4    7    5
 0.001622412279938251    8    4    7    6
 -0.002439363877048559    8    4    7    7
 -0.0003063863733053204    8    4    8    1
 -0.0003394231742976123    8    4    8    2
 -0.0001433825819264377    8    4    8    3
 0.002239811525412316    8    4    8    4
 0.001347491806954604    8    5    1    1
 0.0002583970950460085    8    5    2    1
 -0.002042875599159435    8    5    2    2
 -0.00018507563016967    8    5    3    1
 -0.0004500560519739379    8    5    3    2
 -0.002051870806371248    8    5    3    3
 -0.0003099612153627857    8    5    4    1
 -0.0001047709396063003    8    5    4    2
 0.0008423809986713124    8    5    4    3
 -0.004314378349269072    8    5    4    4
 -0.0007893721917976837    8    5    5    1
 0.0006598915867551531    8    5    5    2
 -0.001164948580898164    8    5    5    3
 0.0003581254692113047    8    5    5    4
 -0.006638199324579417    8    5    5    5
 -5.028048557251374e-05    8    5    6    1
 -0.0001639160694536149    8    5    6    2
 0.0009833540928156853    8    5    6    3
 0.001171340732076839    8    5    6    4
 0.001350567407885625    8    5    6    5
 -0.002526314086620158    8    5    6    6
 9.29011520270245e-05    8    5    7    1
 -0.0001975725567892908    8    5    7    2
 0.001687017104566545    8    5    7    3
 -0.0008076511235920276    8    5    7    4
 -0.001374376629240073    8    5    7    5
 -0.00132188969174663    8    5    7    6
 -0.004458920734736578    8    5    7    7
 0.000147026152415066    8    5    8    1
 0.0002041344234706254    8    5    8    2
 0.0003617427001881336    8    5    8    3
 -0.0005556191724090187    8    5    8    4
 0.001897128443405413    8    5    8    5
 0.008132844690608423    8    6    1    1
 -4.573074306411956e-05    8    6    2    1
 0.0009348581445168794    8    6    2    2
 0.0007457190804973683    8    6    3    1
 0.0009270674773376417    8    6    3    2
 -0.002831622623119623    8    6    3    3
 -0.0004808324881880917    8    6    4    1
 -0.0001102239092473905    8    6    4    2
 0.001136350335725627    8    6    4    3
 -0.0002168117626819453    8    6    4    4
 -0.0003370760602171667    8    6    5    1
 -0.0006086174764190776    8    6    5    2
 0.0009939934699394945    8    6    5    3
 0.001153051536262768    8    6    5    4
 -0.0002754791288040124    8    6    5    5
 2.383676555198393e-06    8    6    6    1
 0.0003464588841830225    8    6    6    2
 -2.889717020331406e-05    8    6    6    3
 -0.00163109162818697    8    6    6    4
 0.00104494840483859    8    6    6    5
 -0.003560339642699812    8    6    6    6
 0.0005434477536572637    8    6    7    1
 -8.483215502997808e-05    8    6    7    2
 -0.0007775457578424896    8    6    7    3
 0.001710766396713631    8    6    7    4
 -0.001707699774714279    8    6    7    5
 -0.001875707495354545    8    6    7    6
 -0.002248502228845474    8    6    7    7
 -0.000391061405883582    8    6    8    1
 -0.0004013620336136656    8    6    8    2
 -0.001325505030691269    8    6    8    3
 0.001957251762314607    8    6    8    4
 -0.001571882704208603    8    6    8    5
 0.007362176495269782    8    6    8    6
 -0.0005408300954215143    8    7    1    1
 -0.0002129012583584791    8    7    2    1
 0.0005105069727235016    8    7    2    2
 1.079958760619915e-05    8    7    3    1
 -0.0003529818106966968    8    7    3    2
 -0.006964061264387975    8    7    3    3
 -0.001335614236803464    8    7    4    1
 -0.0005646581310557593    8    7    4    2
 0.001858621453329767    8    7    4    3
 -0.006346458403081471    8    7    4    4
 0.0002019970691590619    8    7    5    1
 -0.0007038916734021781    8    7    5    2
 0.001483367042947564    8    7    5    3
 -0.0006410988240065455    8    7    5    4
 -0.007057052033219519    8    7    5    5
 -0.0001597755080081546    8    7    6    1
 0.0005657822616111873    8    7    6    2
 -0.0006915060099167086    8    7    6    3
 0.00159134739616976    8    7    6    4
 -0.001206938690359988    8    7    6    5
 -0.007254186982736263    8    7    6    6
 -0.000876624410992808    8    7    7    1
 0.0008832091339055481    8    7    7    2
 -2.561742929771283e-05    8    7    7    3
 -2.972606534771524e-05    8    7    7    4
 -0.0006671122095077841    8    7    7    5
 0.0001285449588815437    8    7    7    6
 -0.003742058970850457    8    7    7    7
 -0.0005149559695608694    8    7    8    1
 0.0007066792649593155    8    7    8    2
 0.0002512093655008327    8    7    8    3
 -0.0003576951655131831    8    7    8    4
 0.000907851177723687    8    7    8    5
 -0.0001816918385563961    8    7    8    6
 0.005259541382644701    8    7    8    7
 0.1760479472905052    8    8    1    1
 -0.003725221493983867    8    8    2    1
 0.1792486843957888    8    8    2    2
 -0.003471165149032131    8    8    3    1
 -0.007653467566989954    8    8    3    2
 0.2958551291561184    8    8    3    3
 -0.002239040467103586    8    8    4    1
 -0.001234790155620241    8    8    4    2
 0.0004281853558110434    8    8    4    3
 0.28440816831738    8    8    4    4
 -0.0003811471619001533    8    8    5    1
 0.0008968054827279017    8    8    5    2
 0.0002144775468363006    8    8    5    3
 -0.001133133500619078    8    8    5    4
 0.269571627779907    8    8    5    5
 -0.003983352276776092    8    8    6    1
 0.002491263227476457    8    8    6    2
 -0.001457731149006395    8    8    6    3
 0.005023169238428009    8    8    6    4
 -0.009189282240715612    8    8    6    5
 0.2836311040555698    8    8    6    6
 -0.002466522074192777    8    8    7    1
 0.002812514966683061    8    8    7    2
 0.0003401276397768028    8    8    7    3
 -0.00169698368197779    8    8    7    4
 0.003889772656427106    8    8    7    5
 0.001026739742416389    8    8    7    6
 0.2968264364267144    8    8    7    7
 -0.001006414554219688    8    8    8    1
 0.002903869539059056    8    8    8    2
 0.0114408243878727    8    8    8    3
 -0.008869225505895847    8    8    8    4
 0.008388670357712289    8    8    8    5
 -0.02666160461476065    8    8    8    6
 0.01171199863850664    8    8    8    7
 0.4494170923217299    8    8    8    8
 -0.001340264274118097    9    1    1    1
 0.0004796852447483518    9    1    2    1
 -0.002905302535808017    9    1    2    2
 -0.0004812739164616708    9    1    3    1
 -0.0001559114362083665    9    1    3    2
 -0.01309894500008405    9    1    3    3
 -0.001291008138369403    9    1    4    1
 0.0001331656457319347    9    1    4    2
 -0.0007512150774536363    9    1    4    3
 -0.01192875017140851    9    1    4    4
 0.0006814469695229062    9    1    5    1
 -0.0002469228847197072    9    1    5    2
 0.0002387815281510133    9    1    5    3
 -9.036671077081844e-05    9    1    5    4
 -0.01124161951201944    9    1    5    5
 -0.0001150371683765921    9    1    6    1
 0.0002686699184821517    9    1    6    2
 0.0002222259979678086    9    1    6    3
 0.0003881569606843371    9    1    6    4
 0.0009867675186871197    9    1    6    5
 -0.0115391544723086    9    1    6    6
 -1.80723335791782e-05    9    1    7    1
 -0.0003061566791067286    9    1    7    2
 0.0003932109801297244    9    1    7    3
 9.201808012310928e-05    9    1    7    4
 -3.886648679207271e-05    9    1    7    5
 0.0005366323618469068    9    1    7    6
 -0.01293332395889937    9    1    7    7
 0.000389420283831993    9    1    8    1
 -7.443991773911756e-06    9    1    8    2
 -0.0002271728457314152    9    1    8    3
 0.0003015657827177895    9    1    8    4
 0.0001537638993624729    9    1    8    5
 -0.000130199250668477    9    1    8    6
 0.0003934318946353568    9    1    8    7